<?xml version="1.0"?>
<VTKFile type="UnstructuredGrid"  version="0.1"  >
<UnstructuredGrid>
<Piece  NumberOfPoints="4141" NumberOfCells="8000">
<Points>
<DataArray  type="Float64"  NumberOfComponents="3"  format="ascii">0 0 0  0.01 0 0  0.02 0 0  0.03 0 0  0.04 0 0  0.05 0 0  0.06 0 0  0.07000000000000001 0 0  0.08 0 0  0.09 0 0  0.1 0 0  0.11 0 0  0.12 0 0  0.13 0 0  0.14 0 0  0.15 0 0  0.16 0 0  0.17 0 0  0.18 0 0  0.19 0 0  0.2 0 0  0.21 0 0  0.22 0 0  0.23 0 0  0.24 0 0  0.25 0 0  0.26 0 0  0.27 0 0  0.28 0 0  0.29 0 0  0.3 0 0  0.31 0 0  0.32 0 0  0.33 0 0  0.34 0 0  0.35 0 0  0.36 0 0  0.37 0 0  0.38 0 0  0.39 0 0  0.4 0 0  0.41 0 0  0.42 0 0  0.43 0 0  0.44 0 0  0.45 0 0  0.46 0 0  0.47 0 0  0.48 0 0  0.49 0 0  0.5 0 0  0.51 0 0  0.52 0 0  0.53 0 0  0.54 0 0  0.55 0 0  0.5600000000000001 0 0  0.57 0 0  0.58 0 0  0.59 0 0  0.6 0 0  0.61 0 0  0.62 0 0  0.63 0 0  0.64 0 0  0.65 0 0  0.66 0 0  0.67 0 0  0.68 0 0  0.6899999999999999 0 0  0.7 0 0  0.71 0 0  0.72 0 0  0.73 0 0  0.74 0 0  0.75 0 0  0.76 0 0  0.77 0 0  0.78 0 0  0.79 0 0  0.8 0 0  0.8100000000000001 0 0  0.82 0 0  0.83 0 0  0.84 0 0  0.85 0 0  0.86 0 0  0.87 0 0  0.88 0 0  0.89 0 0  0.9 0 0  0.91 0 0  0.92 0 0  0.93 0 0  0.9399999999999999 0 0  0.95 0 0  0.96 0 0  0.97 0 0  0.98 0 0  0.99 0 0  1 0 0  0 0.01 0  0.01 0.01 0  0.02 0.01 0  0.03 0.01 0  0.04 0.01 0  0.05 0.01 0  0.06 0.01 0  0.07000000000000001 0.01 0  0.08 0.01 0  0.09 0.01 0  0.1 0.01 0  0.11 0.01 0  0.12 0.01 0  0.13 0.01 0  0.14 0.01 0  0.15 0.01 0  0.16 0.01 0  0.17 0.01 0  0.18 0.01 0  0.19 0.01 0  0.2 0.01 0  0.21 0.01 0  0.22 0.01 0  0.23 0.01 0  0.24 0.01 0  0.25 0.01 0  0.26 0.01 0  0.27 0.01 0  0.28 0.01 0  0.29 0.01 0  0.3 0.01 0  0.31 0.01 0  0.32 0.01 0  0.33 0.01 0  0.34 0.01 0  0.35 0.01 0  0.36 0.01 0  0.37 0.01 0  0.38 0.01 0  0.39 0.01 0  0.4 0.01 0  0.41 0.01 0  0.42 0.01 0  0.43 0.01 0  0.44 0.01 0  0.45 0.01 0  0.46 0.01 0  0.47 0.01 0  0.48 0.01 0  0.49 0.01 0  0.5 0.01 0  0.51 0.01 0  0.52 0.01 0  0.53 0.01 0  0.54 0.01 0  0.55 0.01 0  0.5600000000000001 0.01 0  0.57 0.01 0  0.58 0.01 0  0.59 0.01 0  0.6 0.01 0  0.61 0.01 0  0.62 0.01 0  0.63 0.01 0  0.64 0.01 0  0.65 0.01 0  0.66 0.01 0  0.67 0.01 0  0.68 0.01 0  0.6899999999999999 0.01 0  0.7 0.01 0  0.71 0.01 0  0.72 0.01 0  0.73 0.01 0  0.74 0.01 0  0.75 0.01 0  0.76 0.01 0  0.77 0.01 0  0.78 0.01 0  0.79 0.01 0  0.8 0.01 0  0.8100000000000001 0.01 0  0.82 0.01 0  0.83 0.01 0  0.84 0.01 0  0.85 0.01 0  0.86 0.01 0  0.87 0.01 0  0.88 0.01 0  0.89 0.01 0  0.9 0.01 0  0.91 0.01 0  0.92 0.01 0  0.93 0.01 0  0.9399999999999999 0.01 0  0.95 0.01 0  0.96 0.01 0  0.97 0.01 0  0.98 0.01 0  0.99 0.01 0  1 0.01 0  0 0.02 0  0.01 0.02 0  0.02 0.02 0  0.03 0.02 0  0.04 0.02 0  0.05 0.02 0  0.06 0.02 0  0.07000000000000001 0.02 0  0.08 0.02 0  0.09 0.02 0  0.1 0.02 0  0.11 0.02 0  0.12 0.02 0  0.13 0.02 0  0.14 0.02 0  0.15 0.02 0  0.16 0.02 0  0.17 0.02 0  0.18 0.02 0  0.19 0.02 0  0.2 0.02 0  0.21 0.02 0  0.22 0.02 0  0.23 0.02 0  0.24 0.02 0  0.25 0.02 0  0.26 0.02 0  0.27 0.02 0  0.28 0.02 0  0.29 0.02 0  0.3 0.02 0  0.31 0.02 0  0.32 0.02 0  0.33 0.02 0  0.34 0.02 0  0.35 0.02 0  0.36 0.02 0  0.37 0.02 0  0.38 0.02 0  0.39 0.02 0  0.4 0.02 0  0.41 0.02 0  0.42 0.02 0  0.43 0.02 0  0.44 0.02 0  0.45 0.02 0  0.46 0.02 0  0.47 0.02 0  0.48 0.02 0  0.49 0.02 0  0.5 0.02 0  0.51 0.02 0  0.52 0.02 0  0.53 0.02 0  0.54 0.02 0  0.55 0.02 0  0.5600000000000001 0.02 0  0.57 0.02 0  0.58 0.02 0  0.59 0.02 0  0.6 0.02 0  0.61 0.02 0  0.62 0.02 0  0.63 0.02 0  0.64 0.02 0  0.65 0.02 0  0.66 0.02 0  0.67 0.02 0  0.68 0.02 0  0.6899999999999999 0.02 0  0.7 0.02 0  0.71 0.02 0  0.72 0.02 0  0.73 0.02 0  0.74 0.02 0  0.75 0.02 0  0.76 0.02 0  0.77 0.02 0  0.78 0.02 0  0.79 0.02 0  0.8 0.02 0  0.8100000000000001 0.02 0  0.82 0.02 0  0.83 0.02 0  0.84 0.02 0  0.85 0.02 0  0.86 0.02 0  0.87 0.02 0  0.88 0.02 0  0.89 0.02 0  0.9 0.02 0  0.91 0.02 0  0.92 0.02 0  0.93 0.02 0  0.9399999999999999 0.02 0  0.95 0.02 0  0.96 0.02 0  0.97 0.02 0  0.98 0.02 0  0.99 0.02 0  1 0.02 0  0 0.03000000000000001 0  0.01 0.03000000000000001 0  0.02 0.03000000000000001 0  0.03 0.03000000000000001 0  0.04 0.03000000000000001 0  0.05 0.03000000000000001 0  0.06 0.03000000000000001 0  0.07000000000000001 0.03000000000000001 0  0.08 0.03000000000000001 0  0.09 0.03000000000000001 0  0.1 0.03000000000000001 0  0.11 0.03000000000000001 0  0.12 0.03000000000000001 0  0.13 0.03000000000000001 0  0.14 0.03000000000000001 0  0.15 0.03000000000000001 0  0.16 0.03000000000000001 0  0.17 0.03000000000000001 0  0.18 0.03000000000000001 0  0.19 0.03000000000000001 0  0.2 0.03000000000000001 0  0.21 0.03000000000000001 0  0.22 0.03000000000000001 0  0.23 0.03000000000000001 0  0.24 0.03000000000000001 0  0.25 0.03000000000000001 0  0.26 0.03000000000000001 0  0.27 0.03000000000000001 0  0.28 0.03000000000000001 0  0.29 0.03000000000000001 0  0.3 0.03000000000000001 0  0.31 0.03000000000000001 0  0.32 0.03000000000000001 0  0.33 0.03000000000000001 0  0.34 0.03000000000000001 0  0.35 0.03000000000000001 0  0.36 0.03000000000000001 0  0.37 0.03000000000000001 0  0.38 0.03000000000000001 0  0.39 0.03000000000000001 0  0.4 0.03000000000000001 0  0.41 0.03000000000000001 0  0.42 0.03000000000000001 0  0.43 0.03000000000000001 0  0.44 0.03000000000000001 0  0.45 0.03000000000000001 0  0.46 0.03000000000000001 0  0.47 0.03000000000000001 0  0.48 0.03000000000000001 0  0.49 0.03000000000000001 0  0.5 0.03000000000000001 0  0.51 0.03000000000000001 0  0.52 0.03000000000000001 0  0.53 0.03000000000000001 0  0.54 0.03000000000000001 0  0.55 0.03000000000000001 0  0.5600000000000001 0.03000000000000001 0  0.57 0.03000000000000001 0  0.58 0.03000000000000001 0  0.59 0.03000000000000001 0  0.6 0.03000000000000001 0  0.61 0.03000000000000001 0  0.62 0.03000000000000001 0  0.63 0.03000000000000001 0  0.64 0.03000000000000001 0  0.65 0.03000000000000001 0  0.66 0.03000000000000001 0  0.67 0.03000000000000001 0  0.68 0.03000000000000001 0  0.6899999999999999 0.03000000000000001 0  0.7 0.03000000000000001 0  0.71 0.03000000000000001 0  0.72 0.03000000000000001 0  0.73 0.03000000000000001 0  0.74 0.03000000000000001 0  0.75 0.03000000000000001 0  0.76 0.03000000000000001 0  0.77 0.03000000000000001 0  0.78 0.03000000000000001 0  0.79 0.03000000000000001 0  0.8 0.03000000000000001 0  0.8100000000000001 0.03000000000000001 0  0.82 0.03000000000000001 0  0.83 0.03000000000000001 0  0.84 0.03000000000000001 0  0.85 0.03000000000000001 0  0.86 0.03000000000000001 0  0.87 0.03000000000000001 0  0.88 0.03000000000000001 0  0.89 0.03000000000000001 0  0.9 0.03000000000000001 0  0.91 0.03000000000000001 0  0.92 0.03000000000000001 0  0.93 0.03000000000000001 0  0.9399999999999999 0.03000000000000001 0  0.95 0.03000000000000001 0  0.96 0.03000000000000001 0  0.97 0.03000000000000001 0  0.98 0.03000000000000001 0  0.99 0.03000000000000001 0  1 0.03000000000000001 0  0 0.04 0  0.01 0.04 0  0.02 0.04 0  0.03 0.04 0  0.04 0.04 0  0.05 0.04 0  0.06 0.04 0  0.07000000000000001 0.04 0  0.08 0.04 0  0.09 0.04 0  0.1 0.04 0  0.11 0.04 0  0.12 0.04 0  0.13 0.04 0  0.14 0.04 0  0.15 0.04 0  0.16 0.04 0  0.17 0.04 0  0.18 0.04 0  0.19 0.04 0  0.2 0.04 0  0.21 0.04 0  0.22 0.04 0  0.23 0.04 0  0.24 0.04 0  0.25 0.04 0  0.26 0.04 0  0.27 0.04 0  0.28 0.04 0  0.29 0.04 0  0.3 0.04 0  0.31 0.04 0  0.32 0.04 0  0.33 0.04 0  0.34 0.04 0  0.35 0.04 0  0.36 0.04 0  0.37 0.04 0  0.38 0.04 0  0.39 0.04 0  0.4 0.04 0  0.41 0.04 0  0.42 0.04 0  0.43 0.04 0  0.44 0.04 0  0.45 0.04 0  0.46 0.04 0  0.47 0.04 0  0.48 0.04 0  0.49 0.04 0  0.5 0.04 0  0.51 0.04 0  0.52 0.04 0  0.53 0.04 0  0.54 0.04 0  0.55 0.04 0  0.5600000000000001 0.04 0  0.57 0.04 0  0.58 0.04 0  0.59 0.04 0  0.6 0.04 0  0.61 0.04 0  0.62 0.04 0  0.63 0.04 0  0.64 0.04 0  0.65 0.04 0  0.66 0.04 0  0.67 0.04 0  0.68 0.04 0  0.6899999999999999 0.04 0  0.7 0.04 0  0.71 0.04 0  0.72 0.04 0  0.73 0.04 0  0.74 0.04 0  0.75 0.04 0  0.76 0.04 0  0.77 0.04 0  0.78 0.04 0  0.79 0.04 0  0.8 0.04 0  0.8100000000000001 0.04 0  0.82 0.04 0  0.83 0.04 0  0.84 0.04 0  0.85 0.04 0  0.86 0.04 0  0.87 0.04 0  0.88 0.04 0  0.89 0.04 0  0.9 0.04 0  0.91 0.04 0  0.92 0.04 0  0.93 0.04 0  0.9399999999999999 0.04 0  0.95 0.04 0  0.96 0.04 0  0.97 0.04 0  0.98 0.04 0  0.99 0.04 0  1 0.04 0  0 0.05 0  0.01 0.05 0  0.02 0.05 0  0.03 0.05 0  0.04 0.05 0  0.05 0.05 0  0.06 0.05 0  0.07000000000000001 0.05 0  0.08 0.05 0  0.09 0.05 0  0.1 0.05 0  0.11 0.05 0  0.12 0.05 0  0.13 0.05 0  0.14 0.05 0  0.15 0.05 0  0.16 0.05 0  0.17 0.05 0  0.18 0.05 0  0.19 0.05 0  0.2 0.05 0  0.21 0.05 0  0.22 0.05 0  0.23 0.05 0  0.24 0.05 0  0.25 0.05 0  0.26 0.05 0  0.27 0.05 0  0.28 0.05 0  0.29 0.05 0  0.3 0.05 0  0.31 0.05 0  0.32 0.05 0  0.33 0.05 0  0.34 0.05 0  0.35 0.05 0  0.36 0.05 0  0.37 0.05 0  0.38 0.05 0  0.39 0.05 0  0.4 0.05 0  0.41 0.05 0  0.42 0.05 0  0.43 0.05 0  0.44 0.05 0  0.45 0.05 0  0.46 0.05 0  0.47 0.05 0  0.48 0.05 0  0.49 0.05 0  0.5 0.05 0  0.51 0.05 0  0.52 0.05 0  0.53 0.05 0  0.54 0.05 0  0.55 0.05 0  0.5600000000000001 0.05 0  0.57 0.05 0  0.58 0.05 0  0.59 0.05 0  0.6 0.05 0  0.61 0.05 0  0.62 0.05 0  0.63 0.05 0  0.64 0.05 0  0.65 0.05 0  0.66 0.05 0  0.67 0.05 0  0.68 0.05 0  0.6899999999999999 0.05 0  0.7 0.05 0  0.71 0.05 0  0.72 0.05 0  0.73 0.05 0  0.74 0.05 0  0.75 0.05 0  0.76 0.05 0  0.77 0.05 0  0.78 0.05 0  0.79 0.05 0  0.8 0.05 0  0.8100000000000001 0.05 0  0.82 0.05 0  0.83 0.05 0  0.84 0.05 0  0.85 0.05 0  0.86 0.05 0  0.87 0.05 0  0.88 0.05 0  0.89 0.05 0  0.9 0.05 0  0.91 0.05 0  0.92 0.05 0  0.93 0.05 0  0.9399999999999999 0.05 0  0.95 0.05 0  0.96 0.05 0  0.97 0.05 0  0.98 0.05 0  0.99 0.05 0  1 0.05 0  0 0.06000000000000001 0  0.01 0.06000000000000001 0  0.02 0.06000000000000001 0  0.03 0.06000000000000001 0  0.04 0.06000000000000001 0  0.05 0.06000000000000001 0  0.06 0.06000000000000001 0  0.07000000000000001 0.06000000000000001 0  0.08 0.06000000000000001 0  0.09 0.06000000000000001 0  0.1 0.06000000000000001 0  0.11 0.06000000000000001 0  0.12 0.
[...]
<PointData  Vectors="f_9"> 
<DataArray  type="Float64"  Name="f_9"  NumberOfComponents="3" format="ascii">0.0000000000000000e+00 0.0000000000000000e+00 0.0000000000000000e+00  1.7978729180837512e-03 1.7521373390136069e-03 0.0000000000000000e+00  3.1196911291504446e-03 2.8414901600114627e-03 0.0000000000000000e+00  4.2500369574435502e-03 3.7050698859421032e-03 0.0000000000000000e+00  5.2806337340357747e-03 4.4242972361603853e-03 0.0000000000000000e+00  6.2540355300347763e-03 5.0349791805016173e-03 0.0000000000000000e+00  7.1930495794009716e-03 5.5590421546145756e-03 0.0000000000000000e+00  8.1110578277575930e-03 6.0117384378535824e-03 0.0000000000000000e+00  9.0164667063689068e-03 6.4043962894249420e-03 0.0000000000000000e+00  9.9148419889169073e-03 6.7458006336363454e-03 0.0000000000000000e+00  1.0810014476958944e-02 7.0429877127750765e-03 0.0000000000000000e+00  1.1704691352290960e-02 7.3017376466125473e-03 0.0000000000000000e+00  1.2600815027511767e-02 7.5268947696418989e-03 0.0000000000000000e+00  1.3499785721871950e-02 7.7225838213355949e-03 0.0000000000000000e+00  1.4402606596590418e-02 7.8923605769558348e-03 0.0000000000000000e+00  1.5309982692135710e-02 8.0393198889049371e-03 0.0000000000000000e+00  1.6222391030694821e-02 8.1661753016795818e-03 0.0000000000000000e+00  1.7140131959408760e-02 8.2753192266718182e-03 0.0000000000000000e+00  1.8063367821604417e-02 8.3688695227937156e-03 0.0000000000000000e+00  1.8992152772185598e-02 8.4487063724508153e-03 0.0000000000000000e+00  1.9926456211097732e-02 8.5165020936763015e-03 0.0000000000000000e+00  2.0866181487980851e-02 8.5737457142549874e-03 0.0000000000000000e+00  2.1811181013628882e-02 8.6217635907250446e-03 0.0000000000000000e+00  2.2761268578669318e-02 8.6617369866532606e-03 0.0000000000000000e+00  2.3716229457512204e-02 8.6947172703369362e-03 0.0000000000000000e+00  2.4675828724932566e-02 8.7216392141604687e-03 0.0000000000000000e+00  2.5639818108527012e-02 8.7433327518170022e-03 0.0000000000000000e+00  2.6607941626991732e-02 8.7605334594689326e-03 0.0000000000000000e+00  2.7579940211623133e-02 8.7738919619355198e-03 0.0000000000000000e+00  2.8555555470058919e-02 8.7839824178469160e-03 0.0000000000000000e+00  2.9534532722684369e-02 8.7913102033253584e-03 0.0000000000000000e+00  3.0516623420384865e-02 8.7963188885838463e-03 0.0000000000000000e+00  3.1501587035433078e-02 8.7993965833347374e-03 0.0000000000000000e+00  3.2489192503883324e-02 8.8008817132538449e-03 0.0000000000000000e+00  3.3479219286963242e-02 8.8010682796277814e-03 0.0000000000000000e+00  3.4471458109942579e-02 8.8002106467610572e-03 0.0000000000000000e+00  3.5465711429362549e-02 8.7985278960304031e-03 0.0000000000000000e+00  3.6461793673003701e-02 8.7962077811302285e-03 0.0000000000000000e+00  3.7459531291325426e-02 8.7934103156765454e-03 0.0000000000000000e+00  3.8458762654164570e-02 8.7902710216529057e-03 0.0000000000000000e+00  3.9459337822113555e-02 8.7869038649875993e-03 0.0000000000000000e+00  4.0461118218124967e-02 8.7834039027034141e-03 0.0000000000000000e+00  4.1463976221442198e-02 8.7798496644761886e-03 0.0000000000000000e+00  4.2467794702884559e-02 8.7763052900025566e-03 0.0000000000000000e+00  4.3472466517779945e-02 8.7728224422611353e-03 0.0000000000000000e+00  4.4477893970403595e-02 8.7694420155204778e-03 0.0000000000000000e+00  4.5483988261621373e-02 8.7661956557796312e-03 0.0000000000000000e+00  4.6490668929522382e-02 8.7631071102082063e-03 0.0000000000000000e+00  4.7497863291139877e-02 8.7601934210764041e-03 0.0000000000000000e+00  4.8505505891875814e-02 8.7574659786256240e-03 0.0000000000000000e+00  4.9513537967949647e-02 8.7549314463262230e-03 0.0000000000000000e+00  5.0521906926064009e-02 8.7525925710020113e-03 0.0000000000000000e+00  5.1530565843504392e-02 8.7504488893706822e-03 0.0000000000000000e+00  5.2539472991052286e-02 8.7484973416570491e-03 0.0000000000000000e+00  5.3548591380374815e-02 8.7467328020859898e-03 0.0000000000000000e+00  5.4557888336948052e-02 8.7451485352508587e-03 0.0000000000000000e+00  5.5567335099062649e-02 8.7437365865864567e-03 0.0000000000000000e+00  5.6576906443036833e-02 8.7424881144512624e-03 0.0000000000000000e+00  5.7586580334415716e-02 8.7413936706434627e-03 0.0000000000000000e+00  5.8596337604654401e-02 8.7404434355373220e-03 0.0000000000000000e+00  5.9606161652560295e-02 8.7396274134327098e-03 0.0000000000000000e+00  6.0616038169596320e-02 8.7389355931571776e-03 0.0000000000000000e+00  6.1625954888017802e-02 8.7383580784491949e-03 0.0000000000000000e+00  6.2635901350721793e-02 8.7378851921783695e-03 0.0000000000000000e+00  6.3645868701627042e-02 8.7375075580243319e-03 0.0000000000000000e+00  6.4655849495366027e-02 8.7372161628377822e-03 0.0000000000000000e+00  6.5665837525057655e-02 8.7370024025438496e-03 0.0000000000000000e+00  6.6675827666932933e-02 8.7368581141158575e-03 0.0000000000000000e+00  6.7685815740605254e-02 8.7367755958477275e-03 0.0000000000000000e+00  6.8695798383806933e-02 8.7367476178803333e-03 0.0000000000000000e+00  6.9705772940454214e-02 8.7367674246920327e-03 0.0000000000000000e+00  7.0715737360948244e-02 8.7368287310425619e-03 0.0000000000000000e+00  7.1725690113672594e-02 8.7369257126620435e-03 0.0000000000000000e+00  7.2735630106701976e-02 8.7370529927985226e-03 0.0000000000000000e+00  7.3745556618794519e-02 8.7372056255820667e-03 0.0000000000000000e+00  7.4755469238797959e-02 8.7373790770217535e-03 0.0000000000000000e+00  7.5765367812659176e-02 8.7375692043295712e-03 0.0000000000000000e+00  7.6775252397282695e-02 8.7377722341548947e-03 0.0000000000000000e+00  7.7785123220542207e-02 8.7379847402193345e-03 0.0000000000000000e+00  7.8794980646800947e-02 8.7382036207560593e-03 0.0000000000000000e+00  7.9804825147353417e-02 8.7384260760869116e-03 0.0000000000000000e+00  8.0814657275246643e-02 8.7386495866053487e-03 0.0000000000000000e+00  8.1824477643989674e-02 8.7388718913808637e-03 0.0000000000000000e+00  8.2834286909703736e-02 8.7390909675518057e-03 0.0000000000000000e+00  8.3844085756307876e-02 8.7393050106345967e-03 0.0000000000000000e+00  8.4853874883374023e-02 8.7395124158418207e-03 0.0000000000000000e+00  8.5863654996322009e-02 8.7397117604731313e-03 0.0000000000000000e+00  8.6873426798659462e-02 8.7399017874151760e-03 0.0000000000000000e+00  8.7883190986003459e-02 8.7400813897641465e-03 0.0000000000000000e+00  8.8892948241651365e-02 8.7402495965579630e-03 0.0000000000000000e+00  8.9902699233499889e-02 8.7404055595784232e-03 0.0000000000000000e+00  9.0912444612147869e-02 8.7405485411412558e-03 0.0000000000000000e+00  9.1922185010068477e-02 8.7406779027271279e-03 0.0000000000000000e+00  9.2931921041821741e-02 8.7407930941841849e-03 0.0000000000000000e+00  9.3941653305445641e-02 8.7408936429913906e-03 0.0000000000000000e+00  9.4951382385513150e-02 8.7409791425441113e-03 0.0000000000000000e+00  9.5961108859079131e-02 8.7410492371437915e-03 0.0000000000000000e+00  9.6970833307100671e-02 8.7411035976163315e-03 0.0000000000000000e+00  9.7980556334491098e-02 8.7411418664331362e-03 0.0000000000000000e+00  9.8990278573083942e-02 8.7411634518949361e-03 0.0000000000000000e+00  1.0000000000000001e-01 8.7411657508995773e-03 0.0000000000000000e+00  0.0000000000000000e+00 0.0000000000000000e+00 0.0000000000000000e+00  1.1504724740343014e-03 1.1955354519441041e-03 0.0000000000000000e+00  2.4240750986116366e-03 2.3326891540008158e-03 0.0000000000000000e+00  3.5980745581455590e-03 3.2396500214741286e-03 0.0000000000000000e+00  4.6930223426018599e-03 3.9869731330524636e-03 0.0000000000000000e+00  5.7319506460991251e-03 4.6158534455475317e-03 0.0000000000000000e+00  6.7317148342089673e-03 5.1518292047132777e-03 0.0000000000000000e+00  7.7042526400051062e-03 5.6122977025785019e-03 0.0000000000000000e+00  8.6580606738729422e-03 6.0098971680711275e-03 0.0000000000000000e+00  9.5992644024600164e-03 6.3542484944548354e-03 0.0000000000000000e+00  1.0532341123885323e-02 6.6529449857273791e-03 0.0000000000000000e+00  1.1460602875046957e-02 6.9121526546272963e-03 0.0000000000000000e+00  1.2386521321818007e-02 7.1369922168608027e-03 0.0000000000000000e+00  1.3311949770750925e-02 7.3317919364251681e-03 0.0000000000000000e+00  1.4238277900200765e-02 7.5002608775150874e-03 0.0000000000000000e+00  1.5166541949490344e-02 7.6456114103906235e-03 0.0000000000000000e+00  1.6097504927096665e-02 7.7706483871727260e-03 0.0000000000000000e+00  1.7031716251178938e-02 7.8778358337199747e-03 0.0000000000000000e+00  1.7969556990642135e-02 7.9693481011056701e-03 0.0000000000000000e+00  1.8911274812869670e-02 8.0471100334812591e-03 0.0000000000000000e+00  1.9857011418573219e-02 8.1128292101431236e-03 0.0000000000000000e+00  2.0806824380130793e-02 8.1680223548603811e-03 0.0000000000000000e+00  2.1760704728208468e-02 8.2140373705200959e-03 0.0000000000000000e+00  2.2718591247626412e-02 8.2520720306759783e-03 0.0000000000000000e+00  2.3680382181773513e-02 8.2831900680257857e-03 0.0000000000000000e+00  2.4645944863851219e-02 8.3083351974289274e-03 0.0000000000000000e+00  2.5615123666151922e-02 8.3283434687148050e-03 0.0000000000000000e+00  2.6587746568069125e-02 8.3439542433250639e-03 0.0000000000000000e+00  2.7563630578119825e-02 8.3558200162489743e-03 0.0000000000000000e+00  2.8542586197259707e-02 8.3645152522856692e-03 0.0000000000000000e+00  2.9524421074993087e-02 8.3705443675820626e-03 0.0000000000000000e+00  3.0508942982667230e-02 8.3743489595937363e-03 0.0000000000000000e+00  3.1495962207441559e-02 8.3763143682282076e-03 0.0000000000000000e+00  3.2485293454023720e-02 8.3767756359096855e-03 0.0000000000000000e+00  3.3476757328167295e-02 8.3760229231725023e-03 0.0000000000000000e+00  3.4470181465282128e-02 8.3743064280804615e-03 0.0000000000000000e+00  3.5465401358713733e-02 8.3718408515002282e-03 0.0000000000000000e+00  3.6462260934870497e-02 8.3688094454618233e-03 0.0000000000000000e+00  3.7460612916107451e-02 8.3653676781034452e-03 0.0000000000000000e+00  3.8460319006882723e-02 8.3616465457207519e-03 0.0000000000000000e+00  3.9461249934025541e-02 8.3577555600027158e-03 0.0000000000000000e+00  4.0463285367865941e-02 8.3537854364813240e-03 0.0000000000000000e+00  4.1466313747385068e-02 8.3498105084377477e-03 0.0000000000000000e+00  4.2470232029377879e-02 8.3458908889149867e-03 0.0000000000000000e+00  4.3474945378822932e-02 8.3420744020307348e-03 0.0000000000000000e+00  4.4480366815179979e-02 8.3383983034289594e-03 0.0000000000000000e+00  4.5486416827149233e-02 8.3348908084279194e-03 0.0000000000000000e+00  4.6493022966495996e-02 8.3315724452025768e-03 0.0000000000000000e+00  4.7500119429842294e-02 8.3284572491700969e-03 0.0000000000000000e+00  4.8507646635831417e-02 8.3255538136246029e-03 0.0000000000000000e+00  4.9515550803761674e-02 8.3228662105877069e-03 0.0000000000000000e+00  5.0523783538640885e-02 8.3203947948065869e-03 0.0000000000000000e+00  5.1532301426618472e-02 8.3181369028395447e-03 0.0000000000000000e+00  5.2541065643893499e-02 8.3160874582221562e-03 0.0000000000000000e+00  5.3550041581454426e-02 8.3142394928075996e-03 0.0000000000000000e+00  5.4559198487375324e-02 8.3125845935202655e-03 0.0000000000000000e+00  5.5568509127854611e-02 8.3111132829559661e-03 0.0000000000000000e+00  5.6577949467729198e-02 8.3098153415036187e-03 0.0000000000000000e+00  5.7587498370818675e-02 8.3086800779526120e-03 0.0000000000000000e+00  5.8597137320140540e-02 8.3076965548859738e-03 0.0000000000000000e+00  5.9606850157782859e-02 8.3068537745426951e-03 0.0000000000000000e+00  6.0616622844014145e-02 8.3061408302589831e-03 0.0000000000000000e+00  6.1626443235049025e-02 8.3055470280705927e-03 0.0000000000000000e+00  6.2636300878762957e-02 8.3050619825708188e-03 0.0000000000000000e+00  6.3646186827557100e-02 8.3046756906720691e-03 0.0000000000000000e+00  6.4656093467508877e-02 8.3043785865105114e-03 0.0000000000000000e+00  6.5666014362901440e-02 8.3041615803608193e-03 0.0000000000000000e+00  6.6675944115202682e-02 8.3040160840894776e-03 0.0000000000000000e+00  6.7685878235556329e-02 8.3039340253682203e-03 0.0000000000000000e+00  6.8695813029855946e-02 8.3039078525930111e-03 0.0000000000000000e+00  6.9705745495486790e-02 8.3039305322039382e-03 0.0000000000000000e+00  7.0715673228847156e-02 8.3039955398781090e-03 0.0000000000000000e+00  7.1725594342793381e-02 8.3040968468680344e-03 0.0000000000000000e+00  7.2735507393186946e-02 8.3042289025784879e-03 0.0000000000000000e+00  7.3745411313763651e-02 8.3043866143176770e-03 0.0000000000000000e+00  7.4755305358587348e-02 8.3045653250174798e-03 0.0000000000000000e+00  7.5765189051394496e-02 8.3047607895939332e-03 0.0000000000000000e+00  7.6775062141179948e-02 8.3049691505104901e-03 0.0000000000000000e+00  7.7784924563418373e-02 8.3051869130110947e-03 0.0000000000000000e+00  7.8794776406360290e-02 8.3054109204075723e-03 0.0000000000000000e+00  7.9804617881884171e-02 8.3056383297327192e-03 0.0000000000000000e+00  8.0814449300426666e-02 8.3058665880097905e-03 0.0000000000000000e+00  8.1824271049552713e-02 8.3060934093339735e-03 0.0000000000000000e+00  8.2834083575765646e-02 8.3063167529164473e-03 0.0000000000000000e+00  8.3843887369193154e-02 8.3065348022020712e-03 0.0000000000000000e+00  8.4853682950818396e-02 8.3067459451383330e-03 0.0000000000000000e+00  8.5863470861958058e-02 8.3069487556442379e-03 0.0000000000000000e+00  8.6873251655720837e-02 8.3071419763029088e-03 0.0000000000000000e+00  8.7883025890207564e-02 8.3073245022772125e-03 0.0000000000000000e+00  8.8892794123245814e-02 8.3074953664251799e-03 0.0000000000000000e+00  8.9902556908477663e-02 8.3076537255635068e-03 0.0000000000000000e+00  9.0912314792652549e-02 8.3077988477915816e-03 0.0000000000000000e+00  9.1922068314001876e-02 8.3079301007325818e-03 0.0000000000000000e+00  9.2931818001587049e-02 8.3080469404600617e-03 0.0000000000000000e+00  9.3941564375472131e-02 8.3081489007305939e-03 0.0000000000000000e+00  9.4951307947356817e-02 8.3082355818970711e-03 0.0000000000000000e+00  9.5961049220535638e-02 8.3083066384630130e-03 0.0000000000000000e+00  9.6970788685561693e-02 8.3083617635036824e-03 0.0000000000000000e+00  9.7980526799882658e-02 8.3084006667195100e-03 0.0000000000000000e+00  9.8990263911425708e-02 8.3084230424732390e-03 0.0000000000000000e+00  1.0000000000000001e-01 8.3084286533654465e-03 0.0000000000000000e+00  0.0000000000000000e+00 0.0000000000000000e+00 0.0000000000000000e+00  9.7416542984714207e-04 9.5613119196955000e-04 0.0000000000000000e+00  2.0537205425179843e-03 1.9282476396854415e-03 0.0000000000000000e+00  3.1678832794612222e-03 2.8060873086653269e-03 0.0000000000000000e+00  4.2576876127470090e-03 3.5539570724274052e-03 0.0000000000000000e+00  5.3149566286947959e-03 4.1897748409844707e-03 0.0000000000000000e+00  6.3429859868749799e-03 4.7331390618561078e-03 0.0000000000000000e+00  7.3473156032443226e-03 5.1998439268604955e-03 0.0000000000000000e+00  8.3333258188109174e-03 5.6022200183327847e-03 0.0000000000000000e+00  9.3056273829052825e-03 5.9499848436342069e-03 0.0000000000000000e+00  1.0267991758969983e-02 6.2509375192656719e-03 0.0000000000000000e+00  1.1223441605005694e-02 6.5114585022434312e-03 0.0000000000000000e+00  1.2174375310396378e-02 6.7368598159459328e-03 0.0000000000000000e+00  1.3122684436688913e-02 6.9316309348352060e-03 0.0000000000000000e+00  1.4069852961048294e-02 7.0996136089598759e-03 0.0000000000000000e+00  1.5017037675698499e-02 7.2441283750247724e-03 0.0000000000000000e+00  1.5965132303619602e-02 7.3680679565107888e-03 0.0000000000000000e+00  1.6914818458076769e-02 7.4739676848210651e-03 0.0000000000000000e+00  1.7866606262152678e-02 7.5640597354830683e-03 0.0000000000000000e+00  1.8820866918137506e-02 7.6403157828764823e-03 0.0000000000000000e+00  1.9777859009344308e-02 7.7044812314200186e-03 0.0000000000000000e+00  2.0737749896197966e-02 7.7581032176731613e-03 0.0000000000000000e+00  2.1700633240666529e-02 7.8025539278042989e-03 0.0000000000000000e+00  2.2666543445088269e-02 7.8390503307149972e-03 0.0000000000000000e+00  2.3635467606257076e-02 7.8686711197916981e-03 0.0000000000000000e+00  2.4607355447972098e-02 7.8923714411452701e-03 0.0000000000000000e+00  2.5582127592855178e-02 7.9109958340653694e-03 0.0000000000000000e+00  2.6559682457738921e-02 7.9252897008574158e-03 0.0000000000000000e+00  2.7539901999392793e-02 7.9359095451753386e-03 0.0000000000000000e+00  2.8522656493707017e-02 7.9434321614839324e-03 0.0000000000000000e+00  2.9507808498001900e-02 7.9483629171960817e-03 0.0000000000000000e+00  3.0495216120195425e-02 7.9511432389956609e-03 0.0000000000000000e+00  3.1484735698200164e-02 7.9521573927997403e-03 0.0000000000000000e+00  3.2476223976720037e-02 7.9517386305355976e-03 0.0000000000000000e+00  3.3469539855550415e-02 7.9501747648194031e-03 0.0000000000000000e+00  3.4464545772799407e-02 7.9477132235756497e-03 0.0000000000000000e+00  3.5461108777593855e-02 7.9445656297917212e-03 0.0000000000000000e+00  3.6459101339404887e-02 7.9409119463492890e-03 0.0000000000000000e+00  3.7458401934825747e-02 7.9369042217705393e-03 0.0000000000000000e+00  3.8458895447232723e-02 7.9326699694362221e-03 0.0000000000000000e+00  3.9460473410094316e-02 7.9283152101427123e-03 0.0000000000000000e+00  4.0463034120633908e-02 7.9239272055954216e-03 0.0000000000000000e+00  4.1466482647000438e-02 7.9195769084671151e-03 0.0000000000000000e+00  4.2470730748984845e-02 7.9153211528964311e-03 0.0000000000000000e+00  4.3475696729575394e-02 7.9112046077041125e-03 0.0000000000000000e+00  4.4481305232226195e-02 7.9072615131240923e-03 0.0000000000000000e+00  4.5487486996578841e-02 7.9035172204541069e-03 0.0000000000000000e+00  4.6494178583495471e-02 7.8999895527104395e-03 0.0000000000000000e+00  4.7501322078603907e-02 7.8966900031126504e-03 0.0000000000000000e+00  4.8508864782097844e-02 7.8936247870206415e-03 0.0000000000000000e+00  4.9516758891256292e-02 7.8907957617946056e-03 0.0000000000000000e+00  5.0524961181027180e-02 7.8882012279481162e-03 0.0000000000000000e+00  5.1533432687045154e-02 7.8858366239149720e-03 0.0000000000000000e+00  5.2542138394604872e-02 7.8836951257504496e-03 0.0000000000000000e+00  5.3551046936379465e-02 7.8817681621430481e-03 0.0000000000000000e+00  5.4560130301041433e-02 7.8800458542149128e-03 0.0000000000000000e+00  5.5569363554403950e-02 7.8785173887482574e-03 0.0000000000000000e+00  5.6578724574240506e-02 7.8771713326830535e-03 0.0000000000000000e+00  5.7588193799552718e-02 7.8759958959925373e-03 0.0000000000000000e+00  5.8597753994730224e-02 7.8749791493536656e-03 0.0000000000000000e+00  5.9607390028777324e-02 7.8741092023908339e-03 0.0000000000000000e+00  6.0617088669557652e-02 7.8733743476791344e-03 0.0000000000000000e+00  6.1626838392829626e-02 7.8727631751483295e-03 0.0000000000000000e+00  6.2636629205701455e-02 7.8722646610281614e-03 0.0000000000000000e+00  6.3646452484023133e-02 7.8718682350159015e-03 0.0000000000000000e+00  6.4656300823147161e-02 7.8715638289288976e-03 0.0000000000000000e+00  6.5666167901429554e-02 7.8713419097235764e-03 0.0000000000000000e+00  6.6676048355798961e-02 7.8711934994164269e-03 0.0000000000000000e+00  6.7685937668697294e-02 7.8711101841304389e-03 0.0000000000000000e+00  6.8695832065681875e-02 7.8710841142078779e-03 0.0000000000000000e+00  6.9705728422979688e-02 7.8711079970782572e-03 0.0000000000000000e+00  7.0715624184291129e-02 7.8711750843423606e-03 0.0000000000000000e+00  7.1725517286158016e-02 7.8712791543321010e-03 0.0000000000000000e+00  7.2735406091230650e-02 7.8714144912245786e-03 0.0000000000000000e+00  7.3745289328794900e-02 7.8715758616303422e-03 0.0000000000000000e+00  7.4755166041950177e-02 7.8717584894333111e-03 0.0000000000000000e+00  7.5765035540859435e-02 7.8719580295371124e-03 0.0000000000000000e+00  7.6774897361526179e-02 7.8721705410622258e-03 0.0000000000000000e+00  7.7784751229586085e-02 7.8723924604445147e-03 0.0000000000000000e+00  7.8794597028635768e-02 7.8726205748018939e-03 0.0000000000000000e+00  7.9804434772653587e-02 7.8728519958648369e-03 0.0000000000000000e+00  8.0814264582101447e-02 7.8730841347046457e-03 0.0000000000000000e+00  8.182408666332